LAMMPS Description

637  atoms
2340  bonds
0  angles
0  dihedrals
0  impropers

36  atom types
130  bond types

0.000 600.0 xlo xhi
0.000 600.0 ylo yhi
0.000 600.0 zlo zhi

Masses

1   668.3610
2   940.5020
3   758.3960
4   975.4740
5   682.3290
6   830.3960
7   595.2540
8   1086.5400
9   1107.5100
10   333.1800
11   225.1110
12   281.1740
13   316.1210
14   595.3190
15   443.2020
16   503.2590
17   872.3850
18   659.3390
19   942.5290
20   1050.6600
21   733.3580
22   798.4600
23   783.3920
24   1242.6100
25   769.4080
26   1333.6000
27   849.4710
28   801.4420
29   466.2540
30   835.3460
31   458.1950
32   533.2710
33   510.3280
34   546.2110
35   200.1160
36   648.0000

Atoms

1 1 1 1.0000 88.82 121.77 153.47
2 1 2 -1.0000 91.76 125.51 144.28
3 1 3 0.0000 93.19 134.22 140.51
4 1 4 -1.0000 88.77 134.79 151.48
5 1 5 -1.0000 95.45 130.52 161.31
6 1 6 0.0000 99.42 125.49 152.68
7 1 7 0.0000 105.89 128.81 144.70
8 1 8 -1.0000 108.10 136.82 151.62
9 1 9 -2.0000 108.76 145.07 161.91
10 1 10 0.0000 109.26 146.64 172.63
11 1 11 0.0000 109.62 143.50 181.64
12 1 12 0.0000 105.54 139.86 185.57
13 1 13 0.0000 100.58 137.48 181.60
14 1 14 1.0000 104.48 139.81 170.45
15 1 15 -1.0000 104.82 134.40 163.87
16 1 16 0.0000 103.64 128.94 167.75
17 1 17 -1.0000 95.62 132.50 172.31
18 1 18 0.0000 91.58 140.50 173.02
19 1 19 1.0000 96.16 139.10 160.81
20 1 20 1.0000 99.83 139.40 148.96
21 1 21 1.0000 102.10 137.02 138.26
22 1 22 0.0000 103.96 126.05 127.19
23 1 23 0.0000 116.37 124.03 119.32
24 1 24 1.0000 112.02 117.44 126.97
25 1 25 0.0000 101.92 118.24 133.86
26 1 26 -1.0000 97.66 113.77 125.92
27 1 27 0.0000 105.96 121.21 116.93
28 1 28 1.0000 110.15 118.41 110.16
29 1 29 0.0000 105.48 109.61 109.46
30 1 30 -2.0000 112.21 109.09 116.91
31 1 31 0.0000 118.43 114.71 113.58
32 1 32 1.0000 124.58 119.57 109.29
33 1 33 1.0000 122.76 122.61 102.12
34 1 34 -1.0000 119.49 125.67 96.35
35 1 35 0.0000 119.48 129.70 92.60
36 2 1 1.0000 95.94 115.28 153.90
37 2 2 -1.0000 94.36 111.95 144.22
38 2 3 0.0000 93.51 103.42 139.91
39 2 4 -1.0000 96.36 102.33 151.42
40 2 5 -1.0000 88.27 106.21 160.30
41 2 6 0.0000 85.56 111.65 151.42
42 2 7 0.0000 80.32 108.72 142.45
43 2 8 -1.0000 77.13 100.44 148.63
44 2 9 -2.0000 75.00 91.76 158.35
45 2 10 0.0000 72.95 89.74 168.81
46 2 11 0.0000 71.28 92.49 177.80
47 2 12 0.0000 74.75 95.94 182.43
48 2 13 0.0000 80.24 98.46 179.33
49 2 14 1.0000 78.00 96.63 167.64
50 2 15 -1.0000 78.60 102.31 161.32
51 2 16 0.0000 79.21 107.59 165.56
52 2 17 -1.0000 86.48 103.80 171.07
53 2 18 0.0000 90.38 95.75 172.02
54 2 19 1.0000 87.61 97.70 159.34
55 2 20 1.0000 85.70 97.92 147.08
56 2 21 1.0000 85.00 100.77 136.29
57 2 22 0.0000 84.76 112.21 125.54
58 2 23 0.0000 73.62 114.64 116.06
59 2 24 1.0000 76.81 120.87 124.53
60 2 25 0.0000 85.81 119.73 132.77
61 2 26 -1.0000 91.17 124.50 125.72
62 2 27 0.0000 84.26 117.50 115.32
63 2 28 1.0000 81.11 120.61 108.14
64 2 29 0.0000 85.82 129.41 108.50
65 2 30 -2.0000 78.12 129.64 114.90
66 2 31 0.0000 72.43 124.22 110.45
67 2 32 1.0000 67.03 119.52 105.12
68 2 33 1.0000 69.80 116.80 98.20
69 2 34 -1.0000 73.91 113.99 92.84
70 2 35 0.0000 74.42 110.12 88.96
71 3 1 1.0000 68.81 146.74 151.32
72 3 2 -1.0000 71.93 142.73 142.29
73 3 3 0.0000 79.27 137.34 139.30
74 3 4 -1.0000 80.33 140.48 150.76
75 3 5 -1.0000 71.98 136.28 159.23
76 3 6 0.0000 66.95 135.74 149.74
77 3 7 0.0000 67.81 128.84 141.48
78 3 8 -1.0000 72.61 122.62 148.91
79 3 9 -2.0000 77.89 117.50 159.85
80 3 10 0.0000 77.45 115.78 170.57
81 3 11 0.0000 73.26 116.62 179.11
82 3 12 0.0000 71.54 121.80 183.06
83 3 13 0.0000 72.49 127.46 179.45
84 3 14 1.0000 74.22 123.42 168.24
85 3 15 -1.0000 70.35 126.12 161.13
86 3 16 0.0000 65.67 129.69 164.52
87 3 17 -1.0000 71.98 134.65 170.29
88 3 18 0.0000 80.73 134.12 172.28
89 3 19 1.0000 79.01 131.39 159.59
90 3 20 1.0000 79.26 128.60 147.47
91 3 21 1.0000 77.66 128.31 136.40
92 3 22 0.0000 68.91 132.67 124.10
93 3 23 0.0000 62.23 123.27 114.79
94 3 24 1.0000 57.61 130.00 122.09
95 3 25 0.0000 62.23 138.04 130.11
96 3 26 -1.0000 61.62 144.30 122.26
97 3 27 0.0000 65.28 133.81 113.24
98 3 28 1.0000 61.80 131.90 105.79
99 3 29 0.0000 56.61 140.35 104.70
100 3 30 -2.0000 51.80 134.45 111.26
101 3 31 0.0000 54.07 126.41 107.87
102 3 32 1.0000 55.86 118.85 103.44
103 3 33 1.0000 60.40 119.24 96.86
104 3 34 -1.0000 65.47 120.84 91.84
105 3 35 0.0000 69.41 119.03 88.50
106 4 1 1.0000 115.99 90.36 153.47
107 4 2 -1.0000 114.22 94.79 144.28
108 4 3 0.0000 107.40 100.38 140.51
109 4 4 -1.0000 104.69 96.84 151.48
110 4 5 -1.0000 111.73 100.49 161.31
111 4 6 0.0000 118.07 101.41 152.68
112 4 7 0.0000 118.43 108.67 144.70
113 4 8 -1.0000 112.60 114.59 151.62
114 4 9 -2.0000 105.78 119.28 161.91
115 4 10 0.0000 104.67 120.50 172.63
116 4 11 0.0000 107.57 119.25 181.64
117 4 12 0.0000 108.69 113.89 185.57
118 4 13 0.0000 108.27 108.40 181.60
119 4 14 1.0000 108.20 112.95 170.45
120 4 15 -1.0000 113.05 110.54 163.87
121 4 16 0.0000 117.19 106.79 167.75
122 4 17 -1.0000 110.10 101.62 172.31
123 4 18 0.0000 101.15 102.12 173.02
124 4 19 1.0000 104.65 105.39 160.81
125 4 20 1.0000 106.23 108.72 148.96
126 4 21 1.0000 109.42 109.49 138.26
127 4 22 0.0000 119.85 105.62 127.19
128 4 23 0.0000 127.81 115.36 119.32
129 4 24 1.0000 131.34 108.30 126.97
130 4 25 0.0000 125.60 99.95 133.86
131 4 26 -1.0000 127.34 94.03 125.92
132 4 27 0.0000 125.04 104.94 116.93
133 4 28 1.0000 129.56 107.16 110.16
134 4 29 0.0000 134.85 98.71 109.46
135 4 30 -2.0000 138.66 104.28 116.91
136 4 31 0.0000 136.91 112.48 113.58
137 4 32 1.0000 135.78 120.23 109.29
138 4 33 1.0000 132.24 120.18 102.12
139 4 34 -1.0000 127.95 118.87 96.35
140 4 35 0.0000 124.45 120.88 92.60
141 5 1 1.0000 125.17 93.29 153.90
142 5 2 -1.0000 127.26 90.26 144.22
143 5 3 0.0000 134.23 85.26 139.91
144 5 4 -1.0000 136.60 87.18 151.42
145 5 5 -1.0000 129.19 82.11 160.30
146 5 6 0.0000 123.12 82.49 151.42
147 5 7 0.0000 123.04 76.48 142.45
148 5 8 -1.0000 128.62 69.58 148.63
149 5 9 -2.0000 135.07 63.39 158.35
150 5 10 0.0000 135.80 60.61 168.81
151 5 11 0.0000 132.58 60.54 177.80
152 5 12 0.0000 131.33 65.27 182.43
153 5 13 0.0000 131.89 71.28 179.33
154 5 14 1.0000 132.35 68.42 167.64
155 5 15 -1.0000 127.73 71.79 161.32
156 5 16 0.0000 123.46 74.96 165.56
157 5 17 -1.0000 130.38 79.36 171.07
158 5 18 0.0000 139.30 78.71 172.02
159 5 19 1.0000 136.23 77.29 159.34
160 5 20 1.0000 135.08 75.74 147.08
161 5 21 1.0000 132.27 76.56 136.29
162 5 22 0.0000 122.24 82.08 125.54
163 5 23 0.0000 114.57 73.64 116.06
164 5 24 1.0000 110.76 79.52 124.53
165 5 25 0.0000 116.26 86.74 132.77
166 5 26 -1.0000 114.80 93.77 125.72
167 5 27 0.0000 117.41 84.28 115.32
168 5 28 1.0000 113.14 83.11 108.14
169 5 29 0.0000 107.88 91.59 108.50
170 5 30 -2.0000 103.83 85.03 114.90
171 5 31 0.0000 105.68 77.40 110.45
172 5 32 1.0000 107.04 70.37 105.12
173 5 33 1.0000 110.78 71.41 98.20
174 5 34 -1.0000 115.28 73.57 92.84
175 5 35 0.0000 118.88 72.07 88.96
176 6 1 1.0000 84.36 85.52 151.32
177 6 2 -1.0000 89.39 86.22 142.29
178 6 3 0.0000 97.73 89.88 139.30
179 6 4 -1.0000 95.55 92.37 150.76
180 6 5 -1.0000 95.00 83.04 159.23
181 6 6 0.0000 92.96 78.41 149.74
182 6 7 0.0000 99.36 75.71 141.48
183 6 8 -1.0000 107.15 76.76 148.91
184 6 9 -2.0000 114.22 78.77 159.85
185 6 10 0.0000 115.49 77.52 170.57
186 6 11 0.0000 112.67 74.32 179.11
187 6 12 0.0000 107.33 75.42 183.06
188 6 13 0.0000 102.90 79.08 179.45
189 6 14 1.0000 107.26 78.55 168.24
190 6 15 -1.0000 102.99 76.55 161.13
191 6 16 0.0000 97.56 74.28 164.52
192 6 17 -1.0000 96.42 82.23 170.29
193 6 18 0.0000 101.25 89.54 172.28
194 6 19 1.0000 102.75 86.68 159.59
195 6 20 1.0000 105.29 85.51 147.47
196 6 21 1.0000 104.75 83.97 136.40
197 6 22 0.0000 96.59 78.58 124.10
198 6 23 0.0000 101.40 68.09 114.79
199 6 24 1.0000 93.26 67.45 122.09
200 6 25 0.0000 88.61 75.47 130.11
201 6 26 -1.0000 82.88 78.08 122.26
202 6 27 0.0000 93.79 76.00 113.24
203 6 28 1.0000 93.71 72.04 105.79
204 6 29 0.0000 83.79 71.77 104.70
205 6 30 -2.0000 86.50 64.65 111.26
206 6 31 0.0000 94.60 62.60 107.87
207 6 32 1.0000 102.04 60.36 103.44
208 6 33 1.0000 103.97 64.50 96.86
209 6 34 -1.0000 105.12 69.68 91.84
210 6 35 0.0000 108.66 72.19 88.50
211 7 1 1.0000 156.78 98.20 153.47
212 7 2 -1.0000 152.06 98.88 144.28
213 7 3 0.0000 143.80 95.76 140.51
214 7 4 -1.0000 145.52 91.65 151.48
215 7 5 -1.0000 145.87 99.57 161.31
216 7 6 0.0000 148.25 105.52 152.68
217 7 7 0.0000 142.14 109.46 144.70
218 7 8 -1.0000 134.10 107.37 151.62
219 7 9 -2.0000 126.62 103.81 161.91
220 7 10 0.0000 125.01 103.46 172.63
221 7 11 0.0000 127.55 105.35 181.64
222 7 12 0.0000 132.75 103.64 185.57
223 7 13 0.0000 137.29 100.53 181.60
224 7 14 1.0000 133.32 102.74 170.45
225 7 15 -1.0000 137.83 105.74 163.87
226 7 16 0.0000 143.15 107.45 167.75
227 7 17 -1.0000 144.08 98.73 172.31
228 7 18 0.0000 139.17 91.22 173.02
229 7 19 1.0000 138.09 95.89 160.81
230 7 20 1.0000 136.00 98.92 148.96
231 7 21 1.0000 136.92 102.07 138.26
232 7 22 0.0000 145.50 109.17 127.19
233 7 23 0.0000 141.04 120.93 119.32
234 7 24 1.0000 148.92 120.46 126.97
235 7 25 0.0000 153.28 111.31 133.86
236 7 26 -1.0000 159.28 109.86 125.92
237 7 27 0.0000 148.68 113.32 116.93
238 7 28 1.0000 149.02 118.35 110.16
239 7 29 0.0000 158.98 118.70 109.46
240 7 30 -2.0000 156.06 124.79 116.91
241 7 31 0.0000 148.08 127.37 113.58
242 7 32 1.0000 140.80 130.27 109.29
243 7 33 1.0000 139.08 127.17 102.12
244 7 34 -1.0000 138.06 122.81 96.35
245 7 35 0.0000 134.58 120.78 92.60
246 8 1 1.0000 158.83 107.61 153.90
247 8 2 -1.0000 162.50 107.90 144.22
248 8 3 0.0000 170.31 111.44 139.91
249 8 4 -1.0000 169.84 114.45 151.42
250 8 5 -1.0000 170.52 105.50 160.30
251 8 6 0.0000 167.16 100.44 151.42
252 8 7 0.0000 172.32 97.36 142.45
253 8 8 -1.0000 181.09 98.74 148.63
254 8 9 -2.0000 189.67 101.23 158.35
255 8 10 0.0000 192.45 100.47 168.81
256 8 11 0.0000 190.90 97.65 177.80
257 8 12 0.0000 186.17 98.93 182.43
258 8 13 0.0000 181.25 102.42 179.33
259 8 14 1.0000 183.96 101.40 167.64
260 8 15 -1.0000 178.73 99.08 161.32
261 8 16 0.0000 173.85 96.96 165.56
262 8 17 -1.0000 173.50 105.16 171.07
263 8 18 0.0000 178.52 112.56 172.02
264 8 19 1.0000 178.22 109.19 159.34
265 8 20 1.0000 178.99 107.42 147.08
266 8 21 1.0000 176.87 105.39 136.29
267 8 22 0.0000 167.07 99.46 125.54
268 8 23 0.0000 170.55 88.60 116.06
269 8 24 1.0000 163.55 88.25 124.53
270 8 25 0.0000 160.05 96.61 132.77
271 8 26 -1.0000 153.23 98.87 125.72
272 8 27 0.0000 162.75 96.39 115.32
273 8 28 1.0000 161.63 92.10 108.14
274 8 29 0.0000 151.66 91.79 108.50
275 8 30 -2.0000 155.31 84.99 114.90
276 8 31 0.0000 162.84 82.78 110.45
277 8 32 1.0000 169.62 80.45 105.12
278 8 33 1.0000 170.59 84.21 98.20
279 8 34 -1.0000 170.97 89.18 92.84
280 8 35 0.0000 174.07 91.55 88.96
281 9 1 1.0000 145.15 68.39 151.32
282 9 2 -1.0000 147.06 73.09 142.29
283 9 3 0.0000 148.06 82.14 139.30
284 9 4 -1.0000 144.81 81.50 150.76
285 9 5 -1.0000 152.63 76.35 159.23
286 9 6 0.0000 155.61 72.28 149.74
287 9 7 0.0000 161.15 76.47 141.48
288 9 8 -1.0000 164.14 83.74 148.91
289 9 9 -2.0000 165.93 90.87 159.85
290 9 10 0.0000 167.64 91.34 170.57
291 9 11 0.0000 169.01 87.29 179.11
292 9 12 0.0000 165.38 83.22 183.06
293 9 13 0.0000 160.00 81.21 179.45
294 9 14 1.0000 162.64 84.73 168.24
295 9 15 -1.0000 162.24 80.03 161.13
296 9 16 0.0000 161.49 74.19 164.52
297 9 17 -1.0000 154.03 77.18 170.29
298 9 18 0.0000 150.12 85.02 172.28
299 9 19 1.0000 153.34 84.89 159.59
300 9 20 1.0000 155.63 86.50 147.47
301 9 21 1.0000 156.69 85.26 136.40
302 9 22 0.0000 157.28 75.51 124.10
303 9 23 0.0000 168.76 74.42 114.79
304 9 24 1.0000 165.25 67.06 122.09
305 9 25 0.0000 155.98 67.03 130.11
306 9 26 -1.0000 150.86 63.38 122.26
307 9 27 0.0000 158.11 71.79 113.24
308 9 28 1.0000 161.50 69.73 105.79
309 9 29 0.0000 156.78 61.01 104.70
310 9 30 -2.0000 164.30 59.80 111.26
311 9 31 0.0000 170.12 65.78 107.87
312 9 32 1.0000 175.78 71.11 103.44
313 9 33 1.0000 173.17 74.85 96.86
314 9 34 -1.0000 169.25 78.44 91.84
315 9 35 0.0000 168.85 82.76 88.50
316 10 1 1.0000 170.38 137.43 153.47
317 10 2 -1.0000 167.44 133.69 144.28
318 10 3 0.0000 166.01 124.98 140.51
319 10 4 -1.0000 170.43 124.41 151.48
320 10 5 -1.0000 163.75 128.68 161.31
321 10 6 0.0000 159.78 133.71 152.68
322 10 7 0.0000 153.31 130.39 144.70
323 10 8 -1.0000 151.10 122.38 151.62
324 10 9 -2.0000 150.44 114.13 161.91
325 10 10 0.0000 149.94 112.56 172.63
326 10 11 0.0000 149.58 115.69 181.64
327 10 12 0.0000 153.66 119.34 185.57
328 10 13 0.0000 158.62 121.72 181.60
329 10 14 1.0000 154.72 119.39 170.45
330 10 15 -1.0000 154.38 124.80 163.87
331 10 16 0.0000 155.56 130.26 167.75
332 10 17 -1.0000 163.58 126.70 172.31
333 10 18 0.0000 167.62 118.70 173.02
334 10 19 1.0000 163.04 120.10 160.81
335 10 20 1.0000 159.37 119.80 148.96
336 10 21 1.0000 157.10 122.18 138.26
337 10 22 0.0000 155.24 133.15 127.19
338 10 23 0.0000 142.83 135.17 119.32
339 10 24 1.0000 147.18 141.76 126.97
340 10 25 0.0000 157.28 140.96 133.86
341 10 26 -1.0000 161.54 145.43 125.92
342 10 27 0.0000 153.24 137.99 116.93
343 10 28 1.0000 149.05 140.79 110.16
344 10 29 0.0000 153.72 149.59 109.46
345 10 30 -2.0000 146.99 150.11 116.91
346 10 31 0.0000 140.77 144.49 113.58
347 10 32 1.0000 134.62 139.63 109.29
348 10 33 1.0000 136.44 136.59 102.12
349 10 34 -1.0000 139.71 133.53 96.35
350 10 35 0.0000 139.72 129.50 92.60
351 11 1 1.0000 163.26 143.92 153.90
352 11 2 -1.0000 164.84 147.25 144.22
353 11 3 0.0000 165.69 155.78 139.91
354 11 4 -1.0000 162.84 156.87 151.42
355 11 5 -1.0000 170.93 152.99 160.30
356 11 6 0.0000 173.64 147.55 151.42
357 11 7 0.0000 178.88 150.48 142.45
358 11 8 -1.0000 182.07 158.76 148.63
359 11 9 -2.0000 184.20 167.44 158.35
360 11 10 0.0000 186.25 169.46 168.81
361 11 11 0.0000 187.92 166.71 177.80
362 11 12 0.0000 184.45 163.26 182.43
363 11 13 0.0000 178.96 160.74 179.33
364 11 14 1.0000 181.20 162.57 167.64
365 11 15 -1.0000 180.60 156.89 161.32
366 11 16 0.0000 179.99 151.61 165.56
367 11 17 -1.0000 172.72 155.40 171.07
368 11 18 0.0000 168.82 163.45 172.02
369 11 19 1.0000 171.59 161.50 159.34
370 11 20 1.0000 173.50 161.28 147.08
371 11 21 1.0000 174.20 158.43 136.29
372 11 22 0.0000 174.44 146.99 125.54
373 11 23 0.0000 185.58 144.56 116.06
374 11 24 1.0000 182.39 138.33 124.53
375 11 25 0.0000 173.39 139.47 132.77
376 11 26 -1.0000 168.03 134.70 125.72
377 11 27 0.0000 174.94 141.70 115.32
378 11 28 1.0000 178.09 138.59 108.14
379 11 29 0.0000 173.38 129.79 108.50
380 11 30 -2.0000 181.08 129.56 114.90
381 11 31 0.0000 186.77 134.98 110.45
382 11 32 1.0000 192.17 139.68 105.12
383 11 33 1.0000 189.40 142.40 98.20
384 11 34 -1.0000 185.29 145.21 92.84
385 11 35 0.0000 184.78 149.08 88.96
386 12 1 1.0000 190.39 112.46 151.32
387 12 2 -1.0000 187.27 116.47 142.29
388 12 3 0.0000 179.93 121.86 139.30
389 12 4 -1.0000 178.87 118.72 150.76
390 12 5 -1.0000 187.22 122.92 159.23
391 12 6 0.0000 192.25 123.47 149.74
392 12 7 0.0000 191.39 130.36 141.48
393 12 8 -1.0000 186.59 136.58 148.91
394 12 9 -2.0000 181.31 141.70 159.85
395 12 10 0.0000 181.75 143.42 170.57
396 12 11 0.0000 185.94 142.58 179.11
397 12 12 0.0000 187.66 137.40 183.06
398 12 13 0.0000 186.71 131.74 179.45
399 12 14 1.0000 184.98 135.78 168.24
400 12 15 -1.0000 188.85 133.08 161.13
401 12 16 0.0000 193.53 129.51 164.52
402 12 17 -1.0000 187.22 124.55 170.29
403 12 18 0.0000 178.47 125.08 172.28
404 12 19 1.0000 180.19 127.81 159.59
405 12 20 1.0000 179.94 130.60 147.47
406 12 21 1.0000 181.54 130.89 136.40
407 12 22 0.0000 190.29 126.53 124.10
408 12 23 0.0000 196.97 135.93 114.79
409 12 24 1.0000 201.59 129.20 122.09
410 12 25 0.0000 196.97 121.16 130.11
411 12 26 -1.0000 197.58 114.90 122.26
412 12 27 0.0000 193.92 125.39 113.24
413 12 28 1.0000 197.40 127.30 105.79
414 12 29 0.0000 202.59 118.85 104.70
415 12 30 -2.0000 207.40 124.75 111.26
416 12 31 0.0000 205.13 132.79 107.87
417 12 32 1.0000 203.34 140.35 103.44
418 12 33 1.0000 198.79 139.96 96.86
419 12 34 -1.0000 193.73 138.36 91.84
420 12 35 0.0000 189.79 140.17 88.50
421 13 1 1.0000 143.21 168.84 153.47
422 13 2 -1.0000 144.98 164.41 144.28
423 13 3 0.0000 151.80 158.82 140.51
424 13 4 -1.0000 154.51 162.36 151.48
425 13 5 -1.0000 147.47 158.71 161.31
426 13 6 0.0000 141.13 157.79 152.68
427 13 7 0.0000 140.77 150.53 144.70
428 13 8 -1.0000 146.60 144.61 151.62
429 13 9 -2.0000 153.42 139.92 161.91
430 13 10 0.0000 154.53 138.70 172.63
431 13 11 0.0000 151.63 139.95 181.64
432 13 12 0.0000 150.51 145.31 185.57
433 13 13 0.0000 150.93 150.80 181.60
434 13 14 1.0000 151.00 146.25 170.45
435 13 15 -1.0000 146.14 148.66 163.87
436 13 16 0.0000 142.01 152.41 167.75
437 13 17 -1.0000 149.10 157.58 172.31
438 13 18 0.0000 158.05 157.08 173.02
439 13 19 1.0000 154.55 153.81 160.81
440 13 20 1.0000 152.97 150.48 148.96
441 13 21 1.0000 149.78 149.71 138.26
442 13 22 0.0000 139.35 153.58 127.19
443 13 23 0.0000 131.39 143.84 119.32
444 13 24 1.0000 127.86 150.90 126.97
445 13 25 0.0000 133.60 159.25 133.86
446 13 26 -1.0000 131.86 165.17 125.92
447 13 27 0.0000 134.16 154.26 116.93
448 13 28 1.0000 129.64 152.04 110.16
449 13 29 0.0000 124.35 160.49 109.46
450 13 30 -2.0000 120.54 154.92 116.91
451 13 31 0.0000 122.29 146.72 113.58
452 13 32 1.0000 123.42 138.97 109.29
453 13 33 1.0000 126.96 139.02 102.12
454 13 34 -1.0000 131.25 140.33 96.35
455 13 35 0.0000 134.75 138.32 92.60
456 14 1 1.0000 134.03 165.91 153.90
457 14 2 -1.0000 131.94 168.94 144.22
458 14 3 0.0000 124.97 173.94 139.91
459 14 4 -1.0000 122.60 172.02 151.42
460 14 5 -1.0000 130.01 177.09 160.30
461 14 6 0.0000 136.08 176.71 151.42
462 14 7 0.0000 136.16 182.72 142.45
463 14 8 -1.0000 130.58 189.62 148.63
464 14 9 -2.0000 124.13 195.81 158.35
465 14 10 0.0000 123.40 198.59 168.81
466 14 11 0.0000 126.62 198.66 177.80
467 14 12 0.0000 127.87 193.93 182.43
468 14 13 0.0000 127.31 187.92 179.33
469 14 14 1.0000 126.85 190.78 167.64
470 14 15 -1.0000 131.47 187.41 161.32
471 14 16 0.0000 135.74 184.24 165.56
472 14 17 -1.0000 128.82 179.84 171.07
473 14 18 0.0000 119.90 180.49 172.02
474 14 19 1.0000 122.97 181.91 159.34
475 14 20 1.0000 124.12 183.46 147.08
476 14 21 1.0000 126.93 182.64 136.29
477 14 22 0.0000 136.96 177.12 125.54
478 14 23 0.0000 144.63 185.56 116.06
479 14 24 1.0000 148.44 179.68 124.53
480 14 25 0.0000 142.94 172.46 132.77
481 14 26 -1.0000 144.40 165.43 125.72
482 14 27 0.0000 141.79 174.92 115.32
483 14 28 1.0000 146.06 176.09 108.14
484 14 29 0.0000 151.32 167.61 108.50
485 14 30 -2.0000 155.37 174.17 114.90
486 14 31 0.0000 153.52 181.80 110.45
487 14 32 1.0000 152.16 188.83 105.12
488 14 33 1.0000 148.42 187.79 98.20
489 14 34 -1.0000 143.92 185.63 92.84
490 14 35 0.0000 140.32 187.13 88.96
491 15 1 1.0000 174.84 173.68 151.32
492 15 2 -1.0000 169.81 172.98 142.29
493 15 3 0.0000 161.47 169.32 139.30
494 15 4 -1.0000 163.65 166.83 150.76
495 15 5 -1.0000 164.20 176.16 159.23
496 15 6 0.0000 166.24 180.79 149.74
497 15 7 0.0000 159.84 183.49 141.48
498 15 8 -1.0000 152.05 182.44 148.91
499 15 9 -2.0000 144.98 180.43 159.85
500 15 10 0.0000 143.71 181.68 170.57
501 15 11 0.0000 146.53 184.88 179.11
502 15 12 0.0000 151.87 183.78 183.06
503 15 13 0.0000 156.30 180.12 179.45
504 15 14 1.0000 151.94 180.65 168.24
505 15 15 -1.0000 156.21 182.65 161.13
506 15 16 0.0000 161.64 184.92 164.52
507 15 17 -1.0000 162.78 176.97 170.29
508 15 18 0.0000 157.95 169.66 172.28
509 15 19 1.0000 156.45 172.52 159.59
510 15 20 1.0000 153.91 173.69 147.47
511 15 21 1.0000 154.45 175.23 136.40
512 15 22 0.0000 162.61 180.62 124.10
513 15 23 0.0000 157.80 191.11 114.79
514 15 24 1.0000 165.94 191.75 122.09
515 15 25 0.0000 170.59 183.73 130.11
516 15 26 -1.0000 176.32 181.12 122.26
517 15 27 0.0000 165.41 183.20 113.24
518 15 28 1.0000 165.49 187.16 105.79
519 15 29 0.0000 175.41 187.43 104.70
520 15 30 -2.0000 172.70 194.55 111.26
521 15 31 0.0000 164.60 196.60 107.87
522 15 32 1.0000 157.16 198.84 103.44
523 15 33 1.0000 155.23 194.70 96.86
524 15 34 -1.0000 154.08 189.52 91.84
525 15 35 0.0000 150.54 187.01 88.50
526 16 1 1.0000 102.42 161.00 153.47
527 16 2 -1.0000 107.14 160.32 144.28
528 16 3 0.0000 115.40 163.44 140.51
529 16 4 -1.0000 113.68 167.55 151.48
530 16 5 -1.0000 113.33 159.63 161.31
531 16 6 0.0000 110.95 153.68 152.68
532 16 7 0.0000 117.06 149.74 144.70
533 16 8 -1.0000 125.10 151.83 151.62
534 16 9 -2.0000 132.58 155.39 161.91
535 16 10 0.0000 134.19 155.74 172.63
536 16 11 0.0000 131.65 153.85 181.64
537 16 12 0.0000 126.45 155.56 185.57
538 16 13 0.0000 121.91 158.67 181.60
539 16 14 1.0000 125.88 156.46 170.45
540 16 15 -1.0000 121.37 153.46 163.87
541 16 16 0.0000 116.05 151.75 167.75
542 16 17 -1.0000 115.12 160.47 172.31
543 16 18 0.0000 120.03 167.98 173.02
544 16 19 1.0000 121.11 163.31 160.81
545 16 20 1.0000 123.20 160.28 148.96
546 16 21 1.0000 122.28 157.13 138.26
547 16 22 0.0000 113.70 150.03 127.19
548 16 23 0.0000 118.16 138.27 119.32
549 16 24 1.0000 110.28 138.74 126.97
550 16 25 0.0000 105.92 147.89 133.86
551 16 26 -1.0000 99.92 149.34 125.92
552 16 27 0.0000 110.52 145.88 116.93
553 16 28 1.0000 110.18 140.85 110.16
554 16 29 0.0000 100.22 140.50 109.46
555 16 30 -2.0000 103.14 134.41 116.91
556 16 31 0.0000 111.12 131.83 113.58
557 16 32 1.0000 118.40 128.93 109.29
558 16 33 1.0000 120.12 132.03 102.12
559 16 34 -1.0000 121.14 136.39 96.35
560 16 35 0.0000 124.62 138.42 92.60
561 17 1 1.0000 100.37 151.59 153.90
562 17 2 -1.0000 96.70 151.30 144.22
563 17 3 0.0000 88.89 147.76 139.91
564 17 4 -1.0000 89.36 144.75 151.42
565 17 5 -1.0000 88.68 153.70 160.30
566 17 6 0.0000 92.04 158.76 151.42
567 17 7 0.0000 86.88 161.84 142.45
568 17 8 -1.0000 78.11 160.46 148.63
569 17 9 -2.0000 69.53 157.97 158.35
570 17 10 0.0000 66.75 158.73 168.81
571 17 11 0.0000 68.30 161.55 177.80
572 17 12 0.0000 73.03 160.27 182.43
573 17 13 0.0000 77.95 156.78 179.33
574 17 14 1.0000 75.24 157.80 167.64
575 17 15 -1.0000 80.47 160.12 161.32
576 17 16 0.0000 85.35 162.24 165.56
577 17 17 -1.0000 85.70 154.04 171.07
578 17 18 0.0000 80.68 146.64 172.02
579 17 19 1.0000 80.98 150.01 159.34
580 17 20 1.0000 80.21 151.78 147.08
581 17 21 1.0000 82.33 153.81 136.29
582 17 22 0.0000 92.13 159.74 125.54
583 17 23 0.0000 88.65 170.60 116.06
584 17 24 1.0000 95.65 170.95 124.53
585 17 25 0.0000 99.15 162.59 132.77
586 17 26 -1.0000 105.97 160.33 125.72
587 17 27 0.0000 96.45 162.81 115.32
588 17 28 1.0000 97.57 167.10 108.14
589 17 29 0.0000 107.54 167.41 108.50
590 17 30 -2.0000 103.89 174.21 114.90
591 17 31 0.0000 96.36 176.42 110.45
592 17 32 1.0000 89.58 178.75 105.12
593 17 33 1.0000 88.62 174.99 98.20
594 17 34 -1.0000 88.23 170.02 92.84
595 17 35 0.0000 85.13 167.65 88.96
596 18 1 1.0000 114.05 190.81 151.32
597 18 2 -1.0000 112.14 186.11 142.29
598 18 3 0.0000 111.14 177.06 139.30
599 18 4 -1.0000 114.39 177.70 150.76
600 18 5 -1.0000 106.57 182.85 159.23
601 18 6 0.0000 103.59 186.92 149.74
602 18 7 0.0000 98.05 182.73 141.48
603 18 8 -1.0000 95.06 175.46 148.91
604 18 9 -2.0000 93.27 168.33 159.85
605 18 10 0.0000 91.56 167.86 170.57
606 18 11 0.0000 90.19 171.91 179.11
607 18 12 0.0000 93.82 175.98 183.06
608 18 13 0.0000 99.20 177.99 179.45
609 18 14 1.0000 96.56 174.47 168.24
610 18 15 -1.0000 96.96 179.17 161.13
611 18 16 0.0000 97.71 185.01 164.52
612 18 17 -1.0000 105.17 182.02 170.29
613 18 18 0.0000 109.08 174.18 172.28
614 18 19 1.0000 105.86 174.31 159.59
615 18 20 1.0000 103.57 172.70 147.47
616 18 21 1.0000 102.51 173.94 136.40
617 18 22 0.0000 101.92 183.69 124.10
618 18 23 0.0000 90.44 184.78 114.79
619 18 24 1.0000 93.95 192.14 122.09
620 18 25 0.0000 103.22 192.17 130.11
621 18 26 -1.0000 108.34 195.82 122.26
622 18 27 0.0000 101.09 187.41 113.24
623 18 28 1.0000 97.70 189.47 105.79
624 18 29 0.0000 102.42 198.19 104.70
625 18 30 -2.0000 94.90 199.40 111.26
626 18 31 0.0000 89.08 193.41 107.87
627 18 32 1.0000 83.42 188.09 103.44
628 18 33 1.0000 86.03 184.35 96.86
629 18 34 -1.0000 89.95 180.76 91.84
630 18 35 0.0000 90.35 176.44 88.50
631 19 36 -6.0000 129.759 129.138 114.103
632 20 36 -6.0000 197.340 146.532 109.194
633 21 36 -6.0000 148.822 197.445 108.977
634 22 36 -6.0000 79.798 178.856 109.231
635 23 36 -6.0000 60.984 112.766 108.460
636 24 36 -6.0000 110.172 62.326 109.110
637 25 36 -6.0000 176.361 77.835 109.656

Bonds

1 1 1 2
2 2 1 3
3 3 1 4
4 4 1 5
5 5 1 6
6 6 2 3
7 7 2 4
8 8 2 5
9 9 2 6
10 10 2 7
11 11 2 20
12 12 2 21
13 13 2 25
14 14 3 4
15 15 3 6
16 16 3 7
17 17 3 8
18 18 3 20
19 19 3 21
20 20 3 22
21 21 3 25
22 22 4 5
23 23 4 6
24 24 4 8
25 25 4 19
26 26 4 20
27 27 5 6
28 28 5 8
29 29 5 14
30 30 5 15
31 31 5 16
32 32 5 17
33 33 5 18
34 34 5 19
35 35 5 20
36 36 6 7
37 37 6 8
38 38 6 15
39 39 6 16
40 40 6 19
41 41 6 20
42 42 7 8
43 43 7 20
44 44 7 21
45 45 7 25
46 46 8 9
47 47 8 15
48 48 8 19
49 49 8 20
50 50 8 21
51 51 9 10
52 52 9 14
53 53 9 15
54 54 9 19
55 55 9 20
56 56 10 11
57 57 10 12
58 58 10 13
59 59 10 14
60 60 10 15
61 61 11 12
62 62 11 13
63 63 11 14
64 64 12 13
65 65 12 14
66 66 13 14
67 67 13 15
68 68 13 17
69 69 13 18
70 70 14 15
71 71 14 16
72 72 14 17
73 73 14 18
74 74 14 19
75 75 15 16
76 76 15 17
77 77 15 18
78 78 15 19
79 79 15 20
80 80 16 17
81 81 16 18
82 82 16 19
83 83 17 18
84 84 17 19
85 85 18 19
86 86 19 20
87 87 20 21
88 88 21 22
89 89 22 23
90 90 22 24
91 91 22 25
92 92 22 26
93 93 22 27
94 94 22 28
95 95 23 24
96 96 23 27
97 97 23 28
98 98 23 30
99 99 23 31
100 100 23 32
101 101 24 25
102 102 24 26
103 103 24 27
104 104 24 28
105 105 24 30
106 106 24 31
107 107 25 26
108 108 25 27
109 109 26 27
110 110 26 29
111 111 26 30
112 112 27 28
113 113 27 29
114 114 27 30
115 115 27 31
116 116 28 29
117 117 28 30
118 118 28 31
119 119 28 32
120 120 28 33
121 121 29 30
122 122 29 31
123 123 30 31
124 124 31 32
125 125 31 33
126 126 32 33
127 127 32 34
128 128 33 34
129 129 33 35
130 130 34 35
131 1 36 37
132 2 36 38
133 3 36 39
134 4 36 40
135 5 36 41
136 6 37 38
137 7 37 39
138 8 37 40
139 9 37 41
140 10 37 42
141 11 37 55
142 12 37 56
143 13 37 60
144 14 38 39
145 15 38 41
146 16 38 42
147 17 38 43
148 18 38 55
149 19 38 56
150 20 38 57
151 21 38 60
152 22 39 40
153 23 39 41
154 24 39 43
155 25 39 54
156 26 39 55
157 27 40 41
158 28 40 43
159 29 40 49
160 30 40 50
161 31 40 51
162 32 40 52
163 33 40 53
164 34 40 54
165 35 40 55
166 36 41 42
167 37 41 43
168 38 41 50
169 39 41 51
170 40 41 54
171 41 41 55
172 42 42 43
173 43 42 55
174 44 42 56
175 45 42 60
176 46 43 44
177 47 43 50
178 48 43 54
179 49 43 55
180 50 43 56
181 51 44 45
182 52 44 49
183 53 44 50
184 54 44 54
185 55 44 55
186 56 45 46
187 57 45 47
188 58 45 48
189 59 45 49
190 60 45 50
191 61 46 47
192 62 46 48
193 63 46 49
194 64 47 48
195 65 47 49
196 66 48 49
197 67 48 50
198 68 48 52
199 69 48 53
200 70 49 50
201 71 49 51
202 72 49 52
203 73 49 53
204 74 49 54
205 75 50 51
206 76 50 52
207 77 50 53
208 78 50 54
209 79 50 55
210 80 51 52
211 81 51 53
212 82 51 54
213 83 52 53
214 84 52 54
215 85 53 54
216 86 54 55
217 87 55 56
218 88 56 57
219 89 57 58
220 90 57 59
221 91 57 60
222 92 57 61
223 93 57 62
224 94 57 63
225 95 58 59
226 96 58 62
227 97 58 63
228 98 58 65
229 99 58 66
230 100 58 67
231 101 59 60
232 102 59 61
233 103 59 62
234 104 59 63
235 105 59 65
236 106 59 66
237 107 60 61
238 108 60 62
239 109 61 62
240 110 61 64
241 111 61 65
242 112 62 63
243 113 62 64
244 114 62 65
245 115 62 66
246 116 63 64
247 117 63 65
248 118 63 66
249 119 63 67
250 120 63 68
251 121 64 65
252 122 64 66
253 123 65 66
254 124 66 67
255 125 66 68
256 126 67 68
257 127 67 69
258 128 68 69
259 129 68 70
260 130 69 70
261 1 71 72
262 2 71 73
263 3 71 74
264 4 71 75
265 5 71 76
266 6 72 73
267 7 72 74
268 8 72 75
269 9 72 76
270 10 72 77
271 11 72 90
272 12 72 91
273 13 72 95
274 14 73 74
275 15 73 76
276 16 73 77
277 17 73 78
278 18 73 90
279 19 73 91
280 20 73 92
281 21 73 95
282 22 74 75
283 23 74 76
284 24 74 78
285 25 74 89
286 26 74 90
287 27 75 76
288 28 75 78
289 29 75 84
290 30 75 85
291 31 75 86
292 32 75 87
293 33 75 88
294 34 75 89
295 35 75 90
296 36 76 77
297 37 76 78
298 38 76 85
299 39 76 86
300 40 76 89
301 41 76 90
302 42 77 78
303 43 77 90
304 44 77 91
305 45 77 95
306 46 78 79
307 47 78 85
308 48 78 89
309 49 78 90
310 50 78 91
311 51 79 80
312 52 79 84
313 53 79 85
314 54 79 89
315 55 79 90
316 56 80 81
317 57 80 82
318 58 80 83
319 59 80 84
320 60 80 85
321 61 81 82
322 62 81 83
323 63 81 84
324 64 82 83
325 65 82 84
326 66 83 84
327 67 83 85
328 68 83 87
329 69 83 88
330 70 84 85
331 71 84 86
332 72 84 87
333 73 84 88
334 74 84 89
335 75 85 86
336 76 85 87
337 77 85 88
338 78 85 89
339 79 85 90
340 80 86 87
341 81 86 88
342 82 86 89
343 83 87 88
344 84 87 89
345 85 88 89
346 86 89 90
347 87 90 91
348 88 91 92
349 89 92 93
350 90 92 94
351 91 92 95
352 92 92 96
353 93 92 97
354 94 92 98
355 95 93 94
356 96 93 97
357 97 93 98
358 98 93 100
359 99 93 101
360 100 93 102
361 101 94 95
362 102 94 96
363 103 94 97
364 104 94 98
365 105 94 100
366 106 94 101
367 107 95 96
368 108 95 97
369 109 96 97
370 110 96 99
371 111 96 100
372 112 97 98
373 113 97 99
374 114 97 100
375 115 97 101
376 116 98 99
377 117 98 100
378 118 98 101
379 119 98 102
380 120 98 103
381 121 99 100
382 122 99 101
383 123 100 101
384 124 101 102
385 125 101 103
386 126 102 103
387 127 102 104
388 128 103 104
389 129 103 105
390 130 104 105
391 1 106 107
392 2 106 108
393 3 106 109
394 4 106 110
395 5 106 111
396 6 107 108
397 7 107 109
398 8 107 110
399 9 107 111
400 10 107 112
401 11 107 125
402 12 107 126
403 13 107 130
404 14 108 109
405 15 108 111
406 16 108 112
407 17 108 113
408 18 108 125
409 19 108 126
410 20 108 127
411 21 108 130
412 22 109 110
413 23 109 111
414 24 109 113
415 25 109 124
416 26 109 125
417 27 110 111
418 28 110 113
419 29 110 119
420 30 110 120
421 31 110 121
422 32 110 122
423 33 110 123
424 34 110 124
425 35 110 125
426 36 111 112
427 37 111 113
428 38 111 120
429 39 111 121
430 40 111 124
431 41 111 125
432 42 112 113
433 43 112 125
434 44 112 126
435 45 112 130
436 46 113 114
437 47 113 120
438 48 113 124
439 49 113 125
440 50 113 126
441 51 114 115
442 52 114 119
443 53 114 120
444 54 114 124
445 55 114 125
446 56 115 116